 LAMMPS data file from restart file: timestep = 0,        procs = 1
        5200   atoms
        4999   bonds
        4998   angles
 
          16  atom types
 1 bond types
           1 angle types
 
  -50.000000000000000        50.000000000000000      xlo xhi
  -50.000000000000000        50.000000000000000      ylo yhi
  -50.000000000000000        50.000000000000000      zlo zhi
 
 Masses
 
           1           1
           2           1
           3           1
           4           1
           5           1
           6           1
           7           1
           8           1
           9           1
          10           1
          11           1
          12           1
          13           1
          14           1
          15           1
          16           1
 
 Atoms
 
           1           1           1  -2.0028529747988966        46.294176648980631        19.676759949536748                0           0           0
           2           1           1  -15.619750366850793       -9.5851170615237855       -18.222570496134448                0           0           0
           3           1           1  -8.9045350344661536        19.514406749833867        13.873106963707361                0           0           0
           4           1           1   44.344061311371561       -35.033645279989855       -10.037323538937137                0           0           0
           5           1           1  -18.285683068042992       -30.960969778711810       -21.799931014319952                0           0           0
           6           1           1   16.164224985075474       -5.7836228425641290       -29.037182188367574                0           0           0
           7           1           1   13.352236206724116       -6.5085048164126968       -34.092493228463319                0           0           0
           8           1           1  -19.278154212611433       -37.690016696528339       -5.2481558376579640                0           0           0
           9           1           1   24.420255679444519        33.766403209511061        6.0277316919996657                0           0           0
          10           1           1   36.076095763352207       -38.562471127132845        30.552597679880261                0           0           0
          11           1           1  -38.683368872357406        23.780409380693733        5.6062265928813080                0           0           0
          12           1           1  -3.5831794688907959        19.098932710163162       -39.936977915402316                0           0           0
          13           1           1   11.634456961612289        9.1034314271433718       -7.5750109456484420                0           0           0
          14           1           1  -14.625428963502795        45.904245996608914        25.819730297593257                0           0           0
          15           1           1   21.055202507475730        29.999080104643998       -30.558315488941179                0           0           0
          16           1           1  -22.029630252897348      -0.79989060981685567       -37.346004490076787                0           0           0
          17           1           1  -17.447788159657129        22.307772613498678        21.295436402611713                0           0           0
          18           1           1   8.2481612039406507       -8.8901455867455681        47.673531903151535                0           0           0
          19           1           1   31.618816356369084       -34.599782925817109        31.433063161962078                0           0           0
          20           1           1   3.4650946907073541       -16.174469907145152       -31.313859073606064                0           0           0
          21           1           2  -41.586564689016789        14.771200940678137        45.351154361802926                0           0           0
          22           1           2  -7.0152173265320750       -25.167914313722296       -24.517287675488440                0           0           0
          23           1           2   31.795914908756863        18.405432538963712       -40.993388506725751                0           0           0
          24           1           2  -1.0263148056040672        25.609711956273301        7.3937679607448628                0           0           0
          25           1           2   5.8183890252881394        4.8334166581537774       -49.735935792511569                0           0           0
          26           1           2  -28.417540655884899       -44.699746949194150       -19.791806799685773                0           0           0
          27           1           2   29.653154775131608        19.254183736197639       -17.545862911147459                0           0           0
          28           1           2   35.031730340851205        43.369091070484146       -28.016018854500004                0           0           0
          29           1           2   14.819090298231780       -25.558261919260371        37.602399394947398                0           0           0
          30           1           2   15.860633952693703        3.8294704073787820       -2.6738632398226159                0           0           0
          31           1           2   6.9454773226955480        8.6850036044428975        49.688851516854946                0           0           0
          32           1           2   42.143557029194589        18.524533203934070        22.063725231361815                0           0           0
          33           1           2   16.352857223866728       -6.6783380273272019E-002  -27.177282542633808                0           0           0
          34           1           2  -21.681501646741410       -27.057546715591851        34.165297796165902                0           0           0
          35           1           2   22.247972011324801        19.410054836876213        21.905469944608008                0           0           0
          36           1           2  -14.180463054308934       -3.0501881525137220       -24.444294049282099                0           0           0
          37           1           2   41.769808713845578       -42.788297102694038        29.155327269697757                0           0           0
          38           1           2   8.8841155517542898       -44.615303129663090       0.59211517292214189                0           0           0
          39           1           2  -40.048749583064179        20.098615971043053        27.073741998001307                0           0           0
          40           1           2   29.035074651697535        47.841918397476512       -25.995764161885393                0           0           0
          41           1           3  -37.222974807526398        35.775109267993088        22.114944067516610                0           0           0
          42           1           3  -15.718032710167751       -27.602148412795557       0.29078087510607253                0           0           0
          43           1           3   12.774925851441060       -25.812951944821229       -22.025716648707760                0           0           0
          44           1           3  -37.132801444267159        11.429449182907197        42.400519342410000                0           0           0
          45           1           3  -2.5602603123639822        11.761522391322487        27.025538598438064                0           0           0
          46           1           3   8.3723253772205517       -15.969526063742423       -32.728884033203023                0           0           0
          47           1           3  -3.3960469390202253       -37.325237996530845        41.578753359690829                0           0           0
          48           1           3   42.138871079101804        12.850317261033856       -37.249596107701741                0           0           0
          49           1           3   2.5826588557856689       -27.162283823612288       -7.1000722318965703                0           0           0
          50           1           3  -3.6465226828624298       -12.254116328922970        44.921575766021178                0           0           0
          51           1           3  -43.497191572225738       -8.9788851787302661        5.4552403728211738                0           0           0
          52           1           3  -3.2862154027770818        40.847061600931013       -13.823011628672965                0           0           0
          53           1           3  -2.0132566873878766       -16.748960077637687        40.974019742267828                0           0           0
          54           1           3   47.062957542071686        28.865207074905584       -27.470661761465976                0           0           0
          55           1           3   42.831202812859850       -49.183847099105748        31.462856267807897                0           0           0
          56           1           3   30.671601021629968        18.558236095546466        7.5698245027458144                0           0           0
          57           1           3   1.7498715538385279       -8.8968672219646212        7.8864810145182656                0           0           0
          58           1           3   46.716933492354620        28.959283844371004        36.701934410117389                0           0           0
          59           1           3  -47.716006690307864       -32.959930010949989       -43.927808406537437                0           0           0
          60           1           3   35.207239358245268       -8.2138124400443431       -44.132211803385687                0           0           0
          61           1           4  -41.840375313131737        18.795679282254934        43.790512397126932                0           0           0
          62           1           4  -12.185420850043105       -30.250831434601167       -25.460541629184206                0           0           0
          63           1           4  -47.360797796566636        41.986285731424296        19.433697254875408                0           0           0
          64           1           4  -39.229886486590004       -46.448965040469595       -29.716403785812172                0           0           0
          65           1           4   22.607319749647143       -7.6685341369095106       -15.707133347645463                0           0           0
          66           1           4  -49.054162557172866        37.777075390765290        18.790804599619904                0           0           0
          67           1           4  -6.8419985713203957       -47.409790352407541       -12.838755448683848                0           0           0
          68           1           4   47.002204243356537        5.3746923692164046       -42.205430103739396                0           0           0
          69           1           4   22.633985241083920       -18.927330638000061        14.882938102834498                0           0           0
          70           1           4  -20.482569347850799        27.972111506788629       -24.944164271328482                0           0           0
          71           1           4   18.647136014731498        27.537579811001716       -2.4114489170393494                0           0           0
          72           1           4   19.738193998568963        25.536280235875626        19.757583438391929                0           0           0
          73           1           4   34.143874347597510       -38.152963140586337        14.826284486581526                0           0           0
          74           1           4  -15.102643084840217        48.172333618680696        28.511127875582034                0           0           0
          75           1           4   26.575014136361112        45.447322276660543        24.741192689978565                0           0           0
          76           1           4  -41.746279730948068        14.439527129996582       -45.146006046503153                0           0           0
          77           1           4   12.648439425044522       -20.225676697572268       -15.875329293348962                0           0           0
          78           1           4  -31.318396151767548        38.663717078935314        46.772539929379860                0           0           0
          79           1           4   37.825566382773857       -37.956507930934123        24.092224551183300                0           0           0
          80           1           4   27.493401681218071       -19.847141057656138        3.5751935165612760                0           0           0
          81           1           5   44.292652252558220       -44.290373399077311       -1.7346763257289122                0           0           0
          82           1           5   17.945294265633592       -29.426364662659786        33.326416384225297                0           0           0
          83           1           5  -20.004193820558246        39.892761321993177       -20.486240854708250                0           0           0
          84           1           5  -10.585551899810985        4.2153410050685958       -9.6518101500634010                0           0           0
          85           1           5   27.141268806609098        20.897421776196389        8.2616605865705690                0           0           0
          86           1           5  -22.241941836632286        1.5465844403612872       -17.658517519281446                0           0           0
          87           1           5  -22.918408721271156        6.5151282902221048        6.6107327082887748                0           0           0
          88           1           5  -13.362251837148587        39.398030930150412        41.491364930658456                0           0           0
          89           1           5  -42.689226161893025        5.8160384133957246        44.939555788657835                0           0           0
          90           1           5   23.881336354474957      -0.35894219385816939        19.116752312467217                0           0           0
          91           1           5   19.932282950107638        20.307666994055573       -5.3487908417772401                0           0           0
          92           1           5  -31.485890625224222        22.292598293584774       -1.5557719386536828                0           0           0
          93           1           5  -4.6686083521517263        49.103172668447826        2.5434683780788223                0           0           0
          94           1           5   40.645685887567637       -32.135420910392540       -25.821685982099407                0           0           0
          95           1           5   19.416255071089711        6.7527417227175093        6.7659478783998530                0           0           0
          96           1           5  -46.064743303028564       -12.696080678233290       -44.743635717019373                0           0           0
          97           1           5  -12.471244108228285       -21.061139782727523       -41.022993485389073                0           0           0
          98           1           5   8.7434331133589787       -8.7954795694169530       -9.8402187317117029                0           0           0
          99           1           5   3.2571568311348442       -23.730986600336767       -10.106975858744228                0           0           0
         100           1           5   21.491313633405213        37.038023435387011        33.960327130669839                0           0           0
         101           1           6   32.615961762930610        17.983825180614470       -16.410154756623129                0           0           0
         102           1           6   24.469601206583292        15.842861149354604        6.4252070825800036                0           0           0
         103           1           6   12.963821514853946        19.767447868579801       -17.454988261905935                0           0           0
         104           1           6  -18.024716998602020       -46.016151448773144       -35.913900190012448                0           0           0
         105           1           6  -34.816571843363256       -10.978281316551453       -10.378871651827026                0           0           0
         106           1           6  -28.654484839898409        2.9893184384642888        14.176858137024928                0           0           0
         107           1           6   11.713414126371585        48.726867592929928       -32.187571255497517                0           0           0
         108           1           6   48.343636875958687       -46.740129387690764       -18.366667256627565                0           0           0
         109           1           6   18.910802081770395       -42.935659872147291       -48.243005317731935                0           0           0
         110           1           6  -45.048013065144630        45.900893886866498       -22.798633406147328                0           0           0
         111           1           6   25.638302910796501       -22.226617480633728      -0.49902909796215589                0           0           0
         112           1           6   42.555272948998073        37.723573696443459        7.4256021533885272                0           0           0
         113           1           6  -45.860043885264687       -31.906183468168827       -11.616539058197350                0           0           0
         114           1           6   43.666656351957570       -31.064521918313169       -42.857868164596802                0           0           0
         115           1           6  -48.669051965360666       -19.942905989187675        45.302065833159254                0           0           0
         116           1           6  -20.700376759885941       -47.352772123323142        42.500064466156410                0           0           0
         117           1           6 -0.45035253990847179       -41.354620078010463        41.763930577582904                0           0           0
         118           1           6   43.210996762856553        37.739925487628810      -0.52544792858564282                0           0           0
         119           1           6  -26.152948986344327       -4.4681298284975686        6.6077154556179796                0           0           0
         120           1           6   44.501788212199671        30.759953835303321        17.783941539325760                0           0           0
         121           1           7   34.818878589958594       -22.798570355601512       -19.991071251086943                0           0           0
         122           1           7   37.225127233952733       -35.844946129388909       -49.068456264921359                0           0           0
         123           1           7  -40.496960173928663        18.264551123476615        16.476728123632924                0           0           0
         124           1           7  -25.621883086487539       -32.937601735826362        26.785796488246234                0           0           0
         125           1           7   40.746592744778852        21.888568160810649        30.300344646390915                0           0           0
         126           1           7  -43.814738987279277       -39.150172203053422       -22.063456824162397                0           0           0
         127           1           7   44.070778220016230        7.8650017797209983       -41.645909688132853                0           0           0
         128           1           7  -33.451862523180552       -35.731896593870083        4.9138000970399940                0           0           0
         129           1           7  -41.869226758610111       -42.251713302189387       -41.279647530795536                0           0           0
         130           1           7   49.106074297407197        45.166663435597897        27.312766524063854                0           0           0
         131           1           7  -30.230673746694826       -10.522667455394297       -16.269838933403015                0           0           0
         132           1           7   25.414209908823711       -46.507183744495784        17.905945463070189                0           0           0
         133           1           7  -6.9602604405139212        28.347735645724921       -24.899438756636361                0           0           0
         134           1           7  -39.023213642621400        24.653826240161571        32.016330443407007                0           0           0
         135           1           7  -37.495055328463899       -39.050417345438213       -6.5231729158808260                0           0           0
         136           1           7  -30.909870524389849        31.941306394047565       -36.981897972227642                0           0           0
         137           1           7  -32.110535362872547        19.269086715247081       -30.057738951769998                0           0           0
         138           1           7  -9.9349925496411871       -16.047988137362033        49.397873899832248                0           0           0
         139           1           7  -13.521696097009006       -25.512883361101068       -23.826233809587361                0           0           0
         140           1           7  -23.755705068566947        43.708775653246214       -14.204513531342844                0           0           0
         141           1           8   38.787166741450797        27.512520664933128        15.038465219479130                0           0           0
         142           1           8   36.406488865642608        32.820542390485933       -20.454985851642782                0           0           0
         143           1           8   6.6093623135229933       -40.821411856579900      -0.74809384136949042                0           0           0
         144           1           8  -48.942793267477327       -27.118938622272548        32.881395713257518                0           0           0
         145           1           8   15.442096839276070        40.008292553072422       -35.977808204626797                0           0           0
         146           1           8   12.124566549384125        14.142835615466820       -42.477831651606635                0           0           0
         147           1           8   11.046577956492614       -22.069156425866222        5.7875083208100309                0           0           0
         148           1           8   1.3429701997907162        9.0834926000681495        7.6111586990104616                0           0           0
         149           1           8   23.719474800017824       -28.560209372738001        19.089332309956671                0           0           0
         150           1           8   27.693653753761222        13.490896650436641        41.248280675876941                0           0           0
         151           1           8   4.1742042957794379       -30.117466631377589       -2.7090306829243183                0           0           0
         152           1           8   18.424708776514237       -35.343242831466512       -9.2577363690262260                0           0           0
         153           1           8   23.596331123570714       0.85928631945457190        16.842125268459824                0           0           0
         154           1           8   48.296904500577412       -38.134623813657555        26.446686252184399                0           0           0
         155           1           8   46.799675971603556       -1.2054374481506702        35.680498105570649                0           0           0
         156           1           8   43.787758708776167       -47.517185688203469       -4.2528781987424713                0           0           0
         157           1           8   22.845667716344707       -36.556813148102506       -8.4037635714568673                0           0           0
         158           1           8   41.427074794346190        10.998425174317338        49.650286841426720                0           0           0
         159           1           8  -12.901460799748099        33.064702043572552        19.559838346820115                0           0           0
         160           1           8   49.597622918426751        19.195934950448706        46.862016896100911                0           0           0
         161           1           9   31.131989681064120        35.789249493762995       -16.960129952892299                0           0           0
         162           1           9   23.010132317708198        38.584088849614886        45.819590440865269                0           0           0
         163           1           9   23.691038817589515        21.151448606872801        1.0142563188686560                0           0           0
         164           1           9  -35.137290970954993      -0.47594514761140072        9.1039713149042356                0           0           0
         165           1           9  -12.341719660665063       -27.196909236910937       -29.902412069502770                0           0           0
         166           1           9   38.159829363653749       -12.787478125464391        7.2569662974144684                0           0           0
         167           1           9   36.924314057745413        8.7052074859544533        31.305262825520643                0           0           0
         168           1           9  -11.020838386068476       -29.016423285101524       -10.132391701401410                0           0           0
         169           1           9  -37.544507864579259        25.621297331085831       -44.885204634913009                0           0           0
         170           1           9   2.8340425461141070       -45.531858343702190       -20.293607746791764                0           0           0
         171           1           9   30.388674456393932        20.129166940724314       -41.227985897269846                0           0           0
         172           1           9   37.119382574484838       -5.4854696636453930        26.485264059262498                0           0           0
         173           1           9   18.851105461774370        32.464673468357390       -18.194129205166831                0           0           0
         174           1           9   23.683856037942668       -28.275881958484362       -4.0843631353207455                0           0           0
         175           1           9  -33.021340823481196       -21.295930469295023       -47.081715498546231                0           0           0
         176           1           9   33.074802564061237        39.294201302954860        13.974730753121978                0           0           0
         177           1           9   19.927689759754340       -12.319376717209130        48.658321451642706                0           0           0
         178           1           9   2.1027228507672024        8.8362830980167395        15.823033429075778                0           0           0
         179           1           9   47.122154274616193        35.627422537943630        25.833192520448016                0           0           0
         180           1           9  -13.307675117050710       -8.7981099972102683      -0.70925004853237272                0           0           0
         181           1          10  -45.351795111809224       -44.858849041099866        9.7516861261953025                0           0           0
         182           1          10   39.438174663192143        39.334966600756985       -9.0542330955536432                0           0           0
         183           1          10   17.227230086071373        11.267258638711365        45.808264811949769                0           0           0
         184           1          10   17.851404831726391       -43.020868959529146        4.7978276052722926                0           0           0
         185           1          10  -35.529188856235585       -23.827866371689144       -2.8270752745352956                0           0           0
         186           1          10   32.605231528608037        45.300876208126759        34.177013230191484                0           0           0
         187           1          10  -33.836406405138540        28.088486143691988       -30.541700692229401                0           0           0
         188           1          10  -38.209077334739781       -28.048708886125628        23.730098165062223                0           0           0
         189           1          10   44.644566871695815        42.029492677911357        6.3275257683582273                0           0           0
         190           1          10   28.810367954641041       -19.334568152971254       -11.134022777112184                0           0           0
         191           1          10   16.536791731333224       -47.108226250718801        39.644717354815434                0           0           0
         192           1          10  -21.419814640409484        7.7779298607033365       -20.138214833746137                0           0           0
         193           1          10  -37.324435988000104       -29.429742430342198        36.039508891345328                0           0           0